<?xml version="1.0" encoding="UTF-8"?>

<!-- generated on 2023-09-18 16:14:09 by Eclipse SUMO sumo Version 1.17.0
<configuration xmlns:xsi="http://www.w3.org/2001/XMLSchema-instance" xsi:noNamespaceSchemaLocation="http://sumo.dlr.de/xsd/sumoConfiguration.xsd">

    <input>
        <net-file value="scene/ramp160.net.xml"/>
        <route-files value="scene/veh.rou.xml"/>
        <additional-files value="scene/input_types.add.xml,scene/ ramp.detector.xml"/>
    </input>

    <output>
        <fcd-output value="scene/./output/fcd.xml"/>
        <lanechange-output value="scene/./output/lanechange.xml"/>
    </output>

    <time>
        <begin value="0"/>
        <step-length value="0.1"/>
    </time>

    <report>
        <no-warnings value="true"/>
        <duration-log.disable value="true"/>
        <no-step-log value="true"/>
    </report>

    <traci_server>
        <remote-port value="55922"/>
    </traci_server>

    <random_number>
        <random value="true"/>
        <seed value="0"/>
    </random_number>

    <gui_only>
        <gui-settings-file value="scene/gui-settings.cfg"/>
        <delay value="100"/>
    </gui_only>

</configuration>
-->

<fcd-export xmlns:xsi="http://www.w3.org/2001/XMLSchema-instance" xsi:noNamespaceSchemaLocation="http://sumo.dlr.de/xsd/fcd_file.xsd">
    <timestep time="0.00">
        <vehicle id="main_inner_39.0" x="3.43" y="18.40" angle="90.00" type="HDV" speed="30.00" pos="5.10" lane="upstream_1" slope="0.00"/>
        <vehicle id="main_outer_39.0" x="3.43" y="15.20" angle="90.00" type="HDV" speed="30.00" pos="5.10" lane="upstream_0" slope="0.00"/>
        <vehicle id="ramp_39.0" x="5.25" y="-1.03" angle="83.66" type="HDV" speed="30.00" pos="5.10" lane="onramp_0" slope="0.00"/>
    </timestep>
    <timestep time="0.10">
        <vehicle id="main_inner_39.0" x="5.45" y="18.40" angle="90.00" type="HDV" speed="30.10" pos="8.11" lane="upstream_1" slope="0.00"/>
        <vehicle id="main_outer_39.0" x="5.45" y="15.20" angle="90.00" type="HDV" speed="30.10" pos="8.11" lane="upstream_0" slope="0.00"/>
        <vehicle id="ramp_39.0" x="8.24" y="-0.69" angle="83.66" type="HDV" speed="30.10" pos="8.11" lane="onramp_0" slope="0.00"/>
    </timestep>
    <timestep time="0.20">
        <vehicle id="main_inner_39.0" x="7.48" y="18.40" angle="90.00" type="HDV" speed="30.21" pos="11.13" lane="upstream_1" slope="0.00"/>
        <vehicle id="main_outer_39.0" x="7.48" y="15.20" angle="90.00" type="HDV" speed="30.21" pos="11.13" lane="upstream_0" slope="0.00"/>
        <vehicle id="ramp_39.0" x="11.24" y="-0.36" angle="83.66" type="HDV" speed="30.21" pos="11.13" lane="onramp_0" slope="0.00"/>
    </timestep>
    <timestep time="0.30">
        <vehicle id="main_inner_39.0" x="9.51" y="18.40" angle="90.00" type="HDV" speed="30.31" pos="14.16" lane="upstream_1" slope="0.00"/>
        <vehicle id="main_outer_39.0" x="9.51" y="15.20" angle="90.00" type="HDV" speed="30.31" pos="14.16" lane="upstream_0" slope="0.00"/>
        <vehicle id="ramp_39.0" x="14.25" y="-0.03" angle="83.66" type="HDV" speed="30.31" pos="14.16" lane="onramp_0" slope="0.00"/>
    </timestep>
    <timestep time="0.40">
        <vehicle id="main_inner_39.0" x="11.56" y="18.40" angle="90.00" type="HDV" speed="30.47" pos="17.21" lane="upstream_1" slope="0.00"/>
        <vehicle id="main_outer_39.0" x="11.56" y="15.20" angle="90.00" type="HDV" speed="30.47" pos="17.21" lane="upstream_0" slope="0.00"/>
        <vehicle id="ramp_39.0" x="17.28" y="0.31" angle="83.66" type="HDV" speed="30.47" pos="17.21" lane="onramp_0" slope="0.00"/>
    </timestep>
    <timestep time="0.50">
        <vehicle id="main_inner_39.0" x="13.61" y="18.40" angle="90.00" type="HDV" speed="30.61" pos="20.27" lane="upstream_1" slope="0.00"/>
        <vehicle id="main_outer_39.0" x="13.61" y="15.20" angle="90.00" type="HDV" speed="30.61" pos="20.27" lane="upstream_0" slope="0.00"/>
        <vehicle id="ramp_39.0" x="20.32" y="0.65" angle="83.66" type="HDV" speed="30.61" pos="20.27" lane="onramp_0" slope="0.00"/>
    </timestep>
    <timestep time="0.60">
        <vehicle id="main_inner_39.0" x="15.68" y="18.40" angle="90.00" type="HDV" speed="30.79" pos="23.35" lane="upstream_1" slope="0.00"/>
        <vehicle id="main_outer_39.0" x="15.68" y="15.20" angle="90.00" type="HDV" speed="30.79" pos="23.35" lane="upstream_0" slope="0.00"/>
        <vehicle id="ramp_39.0" x="23.38" y="0.99" angle="83.66" type="HDV" speed="30.79" pos="23.35" lane="onramp_0" slope="0.00"/>
    </timestep>
    <timestep time="0.70">
        <vehicle id="main_inner_39.0" x="17.76" y="18.40" angle="90.00" type="HDV" speed="30.88" pos="26.44" lane="upstream_1" slope="0.00"/>
        <vehicle id="main_outer_39.0" x="17.76" y="15.20" angle="90.00" type="HDV" speed="30.88" pos="26.44" lane="upstream_0" slope="0.00"/>
        <vehicle id="ramp_39.0" x="26.45" y="1.33" angle="83.66" type="HDV" speed="30.88" pos="26.44" lane="onramp_0" slope="0.00"/>
    </timestep>
    <timestep time="0.80">
        <vehicle id="main_inner_39.0" x="19.84" y="18.40" angle="90.00" type="HDV" speed="31.03" pos="29.54" lane="upstream_1" slope="0.00"/>
        <vehicle id="main_outer_39.0" x="19.84" y="15.20" angle="90.00" type="HDV" speed="31.03" pos="29.54" lane="upstream_0" slope="0.00"/>
        <vehicle id="ramp_39.0" x="29.54" y="1.67" angle="83.66" type="HDV" speed="31.03" pos="29.54" lane="onramp_0" slope="0.00"/>
    </timestep>
    <timestep time="0.90">
        <vehicle id="main_inner_39.0" x="21.94" y="18.40" angle="90.00" type="HDV" speed="31.19" pos="32.66" lane="upstream_1" slope="0.00"/>
        <vehicle id="main_outer_39.0" x="21.94" y="15.20" angle="90.00" type="HDV" speed="31.19" pos="32.66" lane="upstream_0" slope="0.00"/>
        <vehicle id="ramp_39.0" x="32.64" y="2.02" angle="83.66" type="HDV" speed="31.19" pos="32.66" lane="onramp_0" slope="0.00"/>
    </timestep>
    <timestep time="1.00">
        <vehicle id="main_inner_39.0" x="24.04" y="18.40" angle="90.00" type="HDV" speed="31.30" pos="35.79" lane="upstream_1" slope="0.00"/>
        <vehicle id="main_outer_39.0" x="24.04" y="15.20" angle="90.00" type="HDV" speed="31.30" pos="35.79" lane="upstream_0" slope="0.00"/>
        <vehicle id="ramp_39.0" x="35.75" y="2.36" angle="83.66" type="HDV" speed="31.30" pos="35.79" lane="onramp_0" slope="0.00"/>
    </timestep>
    <timestep time="1.10">
        <vehicle id="main_inner_39.0" x="26.15" y="18.40" angle="90.00" type="HDV" speed="31.43" pos="38.93" lane="upstream_1" slope="0.00"/>
        <vehicle id="main_outer_39.0" x="26.15" y="15.20" angle="90.00" type="HDV" speed="31.43" pos="38.93" lane="upstream_0" slope="0.00"/>
        <vehicle id="ramp_39.0" x="38.87" y="2.71" angle="83.66" type="HDV" speed="31.43" pos="38.93" lane="onramp_0" slope="0.00"/>
    </timestep>
    <timestep time="1.20">
        <vehicle id="main_inner_39.0" x="28.27" y="18.40" angle="90.00" type="HDV" speed="31.59" pos="42.09" lane="upstream_1" slope="0.00"/>
        <vehicle id="main_outer_39.0" x="28.27" y="15.20" angle="90.00" type="HDV" speed="31.59" pos="42.09" lane="upstream_0" slope="0.00"/>
        <vehicle id="ramp_39.0" x="42.01" y="3.06" angle="83.66" type="HDV" speed="31.59" pos="42.09" lane="onramp_0" slope="0.00"/>
    </timestep>
    <timestep time="1.30">
        <vehicle id="main_inner_39.0" x="30.40" y="18.40" angle="90.00" type="HDV" speed="31.70" pos="45.26" lane="upstream_1" slope="0.00"/>
        <vehicle id="main_outer_39.0" x="30.40" y="15.20" angle="90.00" type="HDV" speed="31.70" pos="45.26" lane="upstream_0" slope="0.00"/>
        <vehicle id="ramp_39.0" x="45.16" y="3.41" angle="83.66" type="HDV" speed="31.70" pos="45.26" lane="onramp_0" slope="0.00"/>
    </timestep>
    <timestep time="1.40">
        <vehicle id="main_inner_39.0" x="32.54" y="18.40" angle="90.00" type="HDV" speed="31.85" pos="48.45" lane="upstream_1" slope="0.00"/>
        <vehicle id="main_outer_39.0" x="32.54" y="15.20" angle="90.00" type="HDV" speed="31.85" pos="48.45" lane="upstream_0" slope="0.00"/>
        <vehicle id="ramp_39.0" x="48.33" y="3.76" angle="83.66" type="HDV" speed="31.85" pos="48.45" lane="onramp_0" slope="0.00"/>
    </timestep>
    <timestep time="1.50">
        <vehicle id="main_inner_39.0" x="34.69" y="18.40" angle="90.00" type="HDV" speed="31.98" pos="51.64" lane="upstream_1" slope="0.00"/>
        <vehicle id="main_outer_39.0" x="34.69" y="15.20" angle="90.00" type="HDV" speed="31.98" pos="51.64" lane="upstream_0" slope="0.00"/>
        <vehicle id="ramp_39.0" x="51.50" y="4.11" angle="83.66" type="HDV" speed="31.98" pos="51.64" lane="onramp_0" slope="0.00"/>
    </timestep>
    <timestep time="1.60">
        <vehicle id="main_inner_39.0" x="36.84" y="18.40" angle="90.00" type="HDV" speed="32.10" pos="54.85" lane="upstream_1" slope="0.00"/>
        <vehicle id="main_outer_39.0" x="36.84" y="15.20" angle="90.00" type="HDV" speed="32.10" pos="54.85" lane="upstream_0" slope="0.00"/>
        <vehicle id="ramp_39.0" x="54.69" y="4.47" angle="83.66" type="HDV" speed="32.10" pos="54.85" lane="onramp_0" slope="0.00"/>
    </timestep>
    <timestep time="1.70">
        <vehicle id="main_inner_39.0" x="39.01" y="18.40" angle="90.00" type="HDV" speed="32.23" pos="58.08" lane="upstream_1" slope="0.00"/>
        <vehicle id="main_outer_39.0" x="39.01" y="15.20" angle="90.00" type="HDV" speed="32.23" pos="58.08" lane="upstream_0" slope="0.00"/>
        <vehicle id="ramp_39.0" x="57.90" y="4.82" angle="83.66" type="HDV" speed="32.23" pos="58.08" lane="onramp_0" slope="0.00"/>
    </timestep>
    <timestep time="1.80">
        <vehicle id="main_inner_39.0" x="41.18" y="18.40" angle="90.00" type="HDV" speed="32.33" pos="61.31" lane="upstream_1" slope="0.00"/>
        <vehicle id="main_outer_39.0" x="41.18" y="15.20" angle="90.00" type="HDV" speed="32.33" pos="61.31" lane="upstream_0" slope="0.00"/>
        <vehicle id="ramp_39.0" x="61.11" y="5.18" angle="83.66" type="HDV" speed="32.33" pos="61.31" lane="onramp_0" slope="0.00"/>
    </timestep>
    <timestep time="1.90">
        <vehicle id="main_inner_39.0" x="43.36" y="18.40" angle="90.00" type="HDV" speed="32.45" pos="64.55" lane="upstream_1" slope="0.00"/>
        <vehicle id="main_outer_39.0" x="43.36" y="15.20" angle="90.00" type="HDV" speed="32.45" pos="64.55" lane="upstream_0" slope="0.00"/>
        <vehicle id="ramp_39.0" x="64.34" y="5.54" angle="83.66" type="HDV" speed="32.45" pos="64.55" lane="onramp_0" slope="0.00"/>
    </timestep>
    <timestep time="2.00">
        <vehicle id="main_inner_39.0" x="45.55" y="18.40" angle="90.00" type="HDV" speed="32.55" pos="67.81" lane="upstream_1" slope="0.00"/>
        <vehicle id="main_outer_39.0" x="45.55" y="15.20" angle="90.00" type="HDV" speed="32.55" pos="67.81" lane="upstream_0" slope="0.00"/>
        <vehicle id="ramp_39.0" x="67.57" y="5.90" angle="83.66" type="HDV" speed="32.55" pos="67.81" lane="onramp_0" slope="0.00"/>
    </timestep>
    <timestep time="2.10">
        <vehicle id="main_inner_39.0" x="47.74" y="18.40" angle="90.00" type="HDV" speed="32.73" pos="71.08" lane="upstream_1" slope="0.00"/>
        <vehicle id="main_outer_39.0" x="47.74" y="15.20" angle="90.00" type="HDV" speed="32.73" pos="71.08" lane="upstream_0" slope="0.00"/>
        <vehicle id="ramp_39.0" x="70.82" y="6.26" angle="83.66" type="HDV" speed="32.73" pos="71.08" lane="onramp_0" slope="0.00"/>
    </timestep>
    <timestep time="2.20">
        <vehicle id="main_inner_39.0" x="49.95" y="18.40" angle="90.00" type="HDV" speed="32.91" pos="74.37" lane="upstream_1" slope="0.00"/>
        <vehicle id="main_outer_39.0" x="49.95" y="15.20" angle="90.00" type="HDV" speed="32.91" pos="74.37" lane="upstream_0" slope="0.00"/>
        <vehicle id="ramp_39.0" x="74.09" y="6.62" angle="83.66" type="HDV" speed="32.91" pos="74.37" lane="onramp_0" slope="0.00"/>
    </timestep>
    <timestep time="2.30">
        <vehicle id="main_inner_39.0" x="52.17" y="18.40" angle="90.00" type="HDV" speed="33.03" pos="77.68" lane="upstream_1" slope="0.00"/>
        <vehicle id="main_outer_39.0" x="52.17" y="15.20" angle="90.00" type="HDV" speed="33.03" pos="77.68" lane="upstream_0" slope="0.00"/>
        <vehicle id="ramp_39.0" x="77.38" y="6.98" angle="83.66" type="HDV" speed="33.03" pos="77.68" lane="onramp_0" slope="0.00"/>
    </timestep>
    <timestep time="2.40">
        <vehicle id="main_inner_39.0" x="54.40" y="18.40" angle="90.00" type="HDV" speed="33.18" pos="80.99" lane="upstream_1" slope="0.00"/>
        <vehicle id="main_outer_39.0" x="54.40" y="15.20" angle="90.00" type="HDV" speed="33.18" pos="80.99" lane="upstream_0" slope="0.00"/>
        <vehicle id="ramp_39.0" x="80.67" y="7.35" angle="83.66" type="HDV" speed="33.18" pos="80.99" lane="onramp_0" slope="0.00"/>
    </timestep>
    <timestep time="2.50">
        <vehicle id="main_inner_39.0" x="56.64" y="18.40" angle="90.00" type="HDV" speed="33.33" pos="84.33" lane="upstream_1" slope="0.00"/>
        <vehicle id="main_outer_39.0" x="56.64" y="15.20" angle="90.00" type="HDV" speed="33.33" pos="84.33" lane="upstream_0" slope="0.00"/>
        <vehicle id="ramp_39.0" x="83.99" y="7.72" angle="83.66" type="HDV" speed="33.33" pos="84.33" lane="onramp_0" slope="0.00"/>
    </timestep>
    <timestep time="2.60">
        <vehicle id="main_inner_39.0" x="58.88" y="18.40" angle="90.00" type="HDV" speed="33.43" pos="87.67" lane="upstream_1" slope="0.00"/>
        <vehicle id="main_outer_39.0" x="58.88" y="15.20" angle="90.00" type="HDV" speed="33.33" pos="87.66" lane="upstream_0" slope="0.00"/>
        <vehicle id="ramp_39.0" x="87.31" y="8.09" angle="83.66" type="HDV" speed="33.43" pos="87.67" lane="onramp_0" slope="0.00"/>
    </timestep>
    <timestep time="2.70">
        <vehicle id="main_inner_39.0" x="61.14" y="18.40" angle="90.00" type="HDV" speed="33.54" pos="91.02" lane="upstream_1" slope="0.00"/>
        <vehicle id="main_outer_39.0" x="61.12" y="15.20" angle="90.00" type="HDV" speed="33.35" pos="91.00" lane="upstream_0" slope="0.00"/>
        <vehicle id="ramp_39.0" x="90.64" y="8.46" angle="83.66" type="HDV" speed="33.54" pos="91.02" lane="onramp_0" slope="0.00"/>
    </timestep>
    <timestep time="2.80">
        <vehicle id="main_inner_39.0" x="63.40" y="18.40" angle="90.00" type="HDV" speed="33.68" pos="94.39" lane="upstream_1" slope="0.00"/>
        <vehicle id="main_outer_39.0" x="63.36" y="15.20" angle="90.00" type="HDV" speed="33.38" pos="94.33" lane="upstream_0" slope="0.00"/>
        <vehicle id="ramp_39.0" x="93.99" y="8.83" angle="83.66" type="HDV" speed="33.68" pos="94.39" lane="onramp_0" slope="0.00"/>
    </timestep>
    <timestep time="2.90">
        <vehicle id="main_inner_39.0" x="65.67" y="18.40" angle="90.00" type="HDV" speed="33.83" pos="97.77" lane="upstream_1" slope="0.00"/>
        <vehicle id="main_outer_39.0" x="65.60" y="15.20" angle="90.00" type="HDV" speed="33.39" pos="97.67" lane="upstream_0" slope="0.00"/>
        <vehicle id="ramp_39.0" x="97.35" y="9.20" angle="83.66" type="HDV" speed="33.83" pos="97.77" lane="onramp_0" slope="0.00"/>
    </timestep>
    <timestep time="3.00">
        <vehicle id="main_inner_39.0" x="67.95" y="18.40" angle="90.00" type="HDV" speed="33.93" pos="101.17" lane="upstream_1" slope="0.00"/>
        <vehicle id="main_outer_39.0" x="67.84" y="15.20" angle="90.00" type="HDV" speed="33.33" pos="101.01" lane="upstream_0" slope="0.00"/>
        <vehicle id="ramp_39.0" x="100.72" y="9.58" angle="83.66" type="HDV" speed="33.93" pos="101.17" lane="onramp_0" slope="0.00"/>
    </timestep>
    <timestep time="3.10">
        <vehicle id="main_inner_39.0" x="70.24" y="18.40" angle="90.00" type="HDV" speed="34.03" pos="104.57" lane="upstream_1" slope="0.00"/>
        <vehicle id="main_outer_39.0" x="70.08" y="15.20" angle="90.00" type="HDV" speed="33.34" pos="104.34" lane="upstream_0" slope="0.00"/>
        <vehicle id="ramp_39.0" x="104.10" y="9.95" angle="83.66" type="HDV" speed="34.03" pos="104.57" lane="onramp_0" slope="0.00"/>
    </timestep>
    <timestep time="3.20">
        <vehicle id="main_inner_39.0" x="72.53" y="18.40" angle="90.00" type="HDV" speed="34.18" pos="107.99" lane="upstream_1" slope="0.00"/>
        <vehicle id="main_outer_39.0" x="72.32" y="15.20" angle="90.00" type="HDV" speed="33.38" pos="107.68" lane="upstream_0" slope="0.00"/>
        <vehicle id="ramp_39.0" x="107.50" y="10.33" angle="83.66" type="HDV" speed="34.18" pos="107.99" lane="onramp_0" slope="0.00"/>
    </timestep>
    <timestep time="3.30">
        <vehicle id="main_inner_39.0" x="74.83" y="18.40" angle="90.00" type="HDV" speed="34.23" pos="111.41" lane="upstream_1" slope="0.00"/>
        <vehicle id="main_outer_39.0" x="74.57" y="15.20" angle="90.00" type="HDV" speed="33.37" pos="111.02" lane="upstream_0" slope="0.00"/>
        <vehicle id="ramp_39.0" x="110.91" y="10.71" angle="83.66" type="HDV" speed="34.32" pos="111.42" lane="onramp_0" slope="0.00"/>
    </timestep>
    <timestep time="3.40">
        <vehicle id="main_inner_39.0" x="77.13" y="18.40" angle="90.00" type="HDV" speed="34.27" pos="114.84" lane="upstream_1" slope="0.00"/>
        <vehicle id="main_outer_39.0" x="76.81" y="15.20" angle="90.00" type="HDV" speed="33.41" pos="114.36" lane="upstream_0" slope="0.00"/>
        <vehicle id="ramp_39.0" x="114.34" y="11.09" angle="83.66" type="HDV" speed="34.49" pos="114.87" lane="onramp_0" slope="0.00"/>
    </timestep>
    <timestep time="3.50">
        <vehicle id="main_inner_39.0" x="79.43" y="18.40" angle="90.00" type="HDV" speed="34.18" pos="118.26" lane="upstream_1" slope="0.00"/>
        <vehicle id="main_outer_39.0" x="79.05" y="15.20" angle="90.00" type="HDV" speed="33.33" pos="117.69" lane="upstream_0" slope="0.00"/>
        <vehicle id="ramp_39.0" x="117.78" y="11.47" angle="83.66" type="HDV" speed="34.58" pos="118.33" lane="onramp_0" slope="0.00"/>
    </timestep>
    <timestep time="3.60">
        <vehicle id="main_inner_39.0" x="81.73" y="18.40" angle="90.00" type="HDV" speed="34.25" pos="121.68" lane="upstream_1" slope="0.00"/>
        <vehicle id="main_outer_39.0" x="81.29" y="15.20" angle="90.00" type="HDV" speed="33.39" pos="121.03" lane="upstream_0" slope="0.00"/>
        <vehicle id="ramp_39.0" x="121.23" y="11.86" angle="83.64" type="HDV" speed="34.74" pos="0.32" lane=":1_0_0" slope="0.00"/>
    </timestep>
    <timestep time="3.70">
        <vehicle id="main_inner_39.0" x="84.03" y="18.40" angle="90.00" type="HDV" speed="34.19" pos="125.10" lane="upstream_1" slope="0.00"/>
        <vehicle id="main_outer_39.0" x="83.53" y="15.20" angle="90.00" type="HDV" speed="33.33" pos="124.36" lane="upstream_0" slope="0.00"/>
        <vehicle id="ramp_39.0" x="124.91" y="12.00" angle="86.56" type="HDV" speed="34.84" pos="0.62" lane="acc_0" slope="0.00"/>
    </timestep>
    <timestep time="3.80">
        <vehicle id="main_inner_39.0" x="86.32" y="18.40" angle="90.00" type="HDV" speed="34.22" pos="128.52" lane="upstream_1" slope="0.00"/>
        <vehicle id="main_outer_39.0" x="85.77" y="15.20" angle="90.00" type="HDV" speed="33.37" pos="127.70" lane="upstream_0" slope="0.00"/>
        <vehicle id="ramp_39.0" x="129.53" y="12.00" angle="90.00" type="HDV" speed="34.93" pos="4.12" lane="acc_0" slope="0.00"/>
    </timestep>
    <timestep time="3.90">
        <vehicle id="main_inner_39.0" x="88.62" y="18.40" angle="90.00" type="HDV" speed="34.21" pos="131.94" lane="upstream_1" slope="0.00"/>
        <vehicle id="main_outer_39.0" x="88.01" y="15.20" angle="90.00" type="HDV" speed="33.36" pos="131.03" lane="upstream_0" slope="0.00"/>
        <vehicle id="ramp_39.0" x="134.18" y="12.00" angle="90.00" type="HDV" speed="35.05" pos="7.62" lane="acc_0" slope="0.00"/>
    </timestep>
    <timestep time="4.00">
        <vehicle id="main_inner_39.0" x="90.92" y="18.40" angle="90.00" type="HDV" speed="34.22" pos="135.37" lane="upstream_1" slope="0.00"/>
        <vehicle id="main_outer_39.0" x="90.25" y="15.20" angle="90.00" type="HDV" speed="33.36" pos="134.37" lane="upstream_0" slope="0.00"/>
        <vehicle id="ramp_39.0" x="138.83" y="12.00" angle="90.00" type="HDV" speed="35.14" pos="11.14" lane="acc_0" slope="0.00"/>
    </timestep>
    <timestep time="4.10">
        <vehicle id="main_inner_39.0" x="93.22" y="18.40" angle="90.00" type="HDV" speed="34.19" pos="138.79" lane="upstream_1" slope="0.00"/>
        <vehicle id="main_outer_39.0" x="92.49" y="15.20" angle="90.00" type="HDV" speed="33.34" pos="137.70" lane="upstream_0" slope="0.00"/>
        <vehicle id="ramp_39.0" x="143.51" y="12.00" angle="90.00" type="HDV" speed="35.31" pos="14.67" lane="acc_0" slope="0.00"/>
    </timestep>
    <timestep time="4.20">
        <vehicle id="main_inner_39.0" x="95.52" y="18.40" angle="90.00" type="HDV" speed="34.21" pos="142.21" lane="upstream_1" slope="0.00"/>
        <vehicle id="main_outer_39.0" x="94.73" y="15.20" angle="90.00" type="HDV" speed="33.36" pos="141.04" lane="upstream_0" slope="0.00"/>
        <vehicle id="ramp_39.0" x="148.18" y="12.00" angle="90.00" type="HDV" speed="35.31" pos="18.20" lane="acc_0" slope="0.00"/>
    </timestep>
    <timestep time="4.30">
        <vehicle id="main_inner_39.0" x="97.81" y="18.40" angle="90.00" type="HDV" speed="34.21" pos="145.63" lane="upstream_1" slope="0.00"/>
        <vehicle id="main_outer_39.0" x="96.97" y="15.20" angle="90.00" type="HDV" speed="33.36" pos="144.38" lane="upstream_0" slope="0.00"/>
        <vehicle id="ramp_39.0" x="152.87" y="12.00" angle="90.00" type="HDV" speed="35.35" pos="21.73" lane="acc_0" slope="0.00"/>
    </timestep>
    <timestep time="4.40">
        <vehicle id="main_inner_39.0" x="100.11" y="18.40" angle="90.00" type="HDV" speed="34.25" pos="149.05" lane="upstream_1" slope="0.00"/>
        <vehicle id="main_outer_39.0" x="99.22" y="15.20" angle="90.00" type="HDV" speed="33.40" pos="147.71" lane="upstream_0" slope="0.00"/>
        <vehicle id="ramp_39.0" x="157.50" y="12.00" angle="90.00" type="HDV" speed="34.97" pos="25.23" lane="acc_0" slope="0.00"/>
    </timestep>
    <timestep time="4.50">
        <vehicle id="main_inner_39.0" x="102.42" y="18.40" angle="90.00" type="HDV" speed="34.27" pos="152.48" lane="upstream_1" slope="0.00"/>
        <vehicle id="main_outer_39.0" x="101.46" y="15.20" angle="90.00" type="HDV" speed="33.41" pos="151.06" lane="upstream_0" slope="0.00"/>
        <vehicle id="ramp_39.0" x="162.08" y="12.00" angle="90.00" type="HDV" speed="34.57" pos="28.69" lane="acc_0" slope="0.00"/>
    </timestep>
    <timestep time="4.60">
        <vehicle id="main_inner_39.0" x="104.71" y="18.40" angle="90.00" type="HDV" speed="34.19" pos="155.90" lane="upstream_1" slope="0.00"/>
        <vehicle id="main_outer_39.0" x="103.70" y="15.20" angle="90.00" type="HDV" speed="33.34" pos="154.39" lane="upstream_0" slope="0.00"/>
        <vehicle id="ramp_39.0" x="166.60" y="12.00" angle="90.00" type="HDV" speed="34.14" pos="32.10" lane="acc_0" slope="0.00"/>
    </timestep>
    <timestep time="4.70">
        <vehicle id="main_inner_39.0" x="107.01" y="18.40" angle="90.00" type="HDV" speed="34.22" pos="159.32" lane="upstream_1" slope="0.00"/>
        <vehicle id="main_outer_39.0" x="105.94" y="15.20" angle="90.00" type="HDV" speed="33.36" pos="157.73" lane="upstream_0" slope="0.00"/>
        <vehicle id="ramp_39.0" x="171.06" y="12.00" angle="90.00" type="HDV" speed="33.69" pos="35.47" lane="acc_0" slope="0.00"/>
    </timestep>
    <timestep time="4.80">
        <vehicle id="main_inner_39.0" x="109.31" y="18.40" angle="90.00" type="HDV" speed="34.20" pos="162.74" lane="upstream_1" slope="0.00"/>
        <vehicle id="main_outer_39.0" x="108.18" y="15.20" angle="90.00" type="HDV" speed="33.34" pos="161.06" lane="upstream_0" slope="0.00"/>
        <vehicle id="ramp_39.0" x="175.46" y="12.00" angle="90.00" type="HDV" speed="33.24" pos="38.79" lane="acc_0" slope="0.00"/>
    </timestep>
    <timestep time="4.90">
        <vehicle id="main_inner_39.0" x="111.61" y="18.40" angle="90.00" type="HDV" speed="34.27" pos="166.17" lane="upstream_1" slope="0.00"/>
        <vehicle id="main_outer_39.0" x="110.42" y="15.20" angle="90.00" type="HDV" speed="33.41" pos="164.40" lane="upstream_0" slope="0.00"/>
        <vehicle id="ramp_39.0" x="179.80" y="12.00" angle="90.00" type="HDV" speed="32.79" pos="42.07" lane="acc_0" slope="0.00"/>
    </timestep>
    <timestep time="5.00">
        <vehicle id="main_inner_39.0" x="113.91" y="18.40" angle="90.00" type="HDV" speed="34.22" pos="169.59" lane="upstream_1" slope="0.00"/>
        <vehicle id="main_outer_39.0" x="112.66" y="15.20" angle="90.00" type="HDV" speed="33.37" pos="167.74" lane="upstream_0" slope="0.00"/>
        <vehicle id="ramp_39.0" x="184.09" y="12.00" angle="90.00" type="HDV" speed="32.34" pos="45.31" lane="acc_0" slope="0.00"/>
    </timestep>
    <timestep time="5.10">
        <vehicle id="main_inner_39.0" x="116.20" y="18.40" angle="90.00" type="HDV" speed="34.19" pos="173.01" lane="upstream_1" slope="0.00"/>
        <vehicle id="main_outer_39.0" x="114.90" y="15.20" angle="90.00" type="HDV" speed="33.33" pos="171.07" lane="upstream_0" slope="0.00"/>
        <vehicle id="ramp_39.0" x="188.31" y="12.00" angle="90.00" type="HDV" speed="31.89" pos="48.49" lane="acc_0" slope="0.00"/>
    </timestep>
    <timestep time="5.20">
        <vehicle id="main_inner_39.0" x="118.50" y="18.40" angle="90.00" type="HDV" speed="34.22" pos="176.43" lane="upstream_1" slope="0.00"/>
        <vehicle id="main_outer_39.0" x="117.14" y="15.20" angle="90.00" type="HDV" speed="33.36" pos="174.41" lane="upstream_0" slope="0.00"/>
        <vehicle id="ramp_39.0" x="192.47" y="12.00" angle="90.00" type="HDV" speed="31.44" pos="51.64" lane="acc_0" slope="0.00"/>
    </timestep>
    <timestep time="5.30">
        <vehicle id="main_inner_39.0" x="120.80" y="18.40" angle="90.00" type="HDV" speed="34.27" pos="179.86" lane="upstream_1" slope="0.00"/>
        <vehicle id="main_outer_39.0" x="119.39" y="15.20" angle="90.00" type="HDV" speed="33.41" pos="177.75" lane="upstream_0" slope="0.00"/>
        <vehicle id="ramp_39.0" x="196.58" y="12.00" angle="90.00" type="HDV" speed="30.99" pos="54.74" lane="acc_0" slope="0.00"/>
    </timestep>
    <timestep time="5.40">
        <vehicle id="main_inner_39.0" x="124.22" y="18.40" angle="90.00" type="HDV" speed="34.26" pos="0.10" lane="acc_2" slope="0.00"/>
        <vehicle id="main_outer_39.0" x="121.99" y="15.20" angle="90.00" type="HDV" speed="33.40" pos="1.09" lane=":1_1_0" slope="0.00"/>
        <vehicle id="ramp_39.0" x="200.62" y="12.00" angle="90.00" type="HDV" speed="30.54" pos="57.79" lane="acc_0" slope="0.00"/>
    </timestep>
    <timestep time="5.50">
        <vehicle id="main_inner_39.0" x="128.75" y="18.40" angle="90.00" type="HDV" speed="34.19" pos="3.52" lane="acc_2" slope="0.00"/>
        <vehicle id="main_outer_39.0" x="125.73" y="15.20" angle="90.00" type="HDV" speed="33.34" pos="1.24" lane="acc_1" slope="0.00"/>
        <vehicle id="ramp_39.0" x="204.61" y="12.00" angle="90.00" type="HDV" speed="30.09" pos="60.80" lane="acc_0" slope="0.00"/>
    </timestep>
    <timestep time="5.60">
        <vehicle id="main_inner_39.0" x="133.28" y="18.40" angle="90.00" type="HDV" speed="34.20" pos="6.94" lane="acc_2" slope="0.00"/>
        <vehicle id="main_outer_39.0" x="130.14" y="15.20" angle="90.00" type="HDV" speed="33.34" pos="4.58" lane="acc_1" slope="0.00"/>
        <vehicle id="ramp_39.0" x="208.53" y="12.00" angle="90.00" type="HDV" speed="29.64" pos="63.76" lane="acc_0" slope="0.00"/>
    </timestep>
    <timestep time="5.70">
        <vehicle id="main_inner_39.0" x="137.80" y="18.40" angle="90.00" type="HDV" speed="34.19" pos="10.36" lane="acc_2" slope="0.00"/>
        <vehicle id="main_outer_39.0" x="134.56" y="15.20" angle="90.00" type="HDV" speed="33.35" pos="7.91" lane="acc_1" slope="0.00"/>
        <vehicle id="ramp_39.0" x="212.40" y="12.00" angle="90.00" type="HDV" speed="29.19" pos="66.68" lane="acc_0" slope="0.00"/>
    </timestep>
    <timestep time="5.80">
        <vehicle id="main_inner_39.0" x="142.34" y="18.40" angle="90.00" type="HDV" speed="34.26" pos="13.79" lane="acc_2" slope="0.00"/>
        <vehicle id="main_outer_39.0" x="138.97" y="15.20" angle="90.00" type="HDV" speed="33.33" pos="11.24" lane="acc_1" slope="0.00"/>
        <vehicle id="ramp_39.0" x="216.21" y="12.00" angle="90.00" type="HDV" speed="28.76" pos="69.56" lane="acc_0" slope="0.00"/>
    </timestep>
    <timestep time="5.90">
        <vehicle id="main_inner_39.0" x="146.88" y="18.40" angle="90.00" type="HDV" speed="34.23" pos="17.21" lane="acc_2" slope="0.00"/>
        <vehicle id="main_outer_39.0" x="143.40" y="15.20" angle="90.00" type="HDV" speed="33.40" pos="14.58" lane="acc_1" slope="0.00"/>
        <vehicle id="ramp_39.0" x="219.96" y="12.00" angle="90.00" type="HDV" speed="28.31" pos="72.39" lane="acc_0" slope="0.00"/>
    </timestep>
    <timestep time="6.00">
        <vehicle id="main_inner_39.0" x="151.42" y="18.40" angle="90.00" type="HDV" speed="34.27" pos="20.64" lane="acc_2" slope="0.00"/>
        <vehicle id="main_outer_39.0" x="147.76" y="15.20" angle="90.00" type="HDV" speed="32.95" pos="17.88" lane="acc_1" slope="0.00"/>
        <vehicle id="ramp_39.0" x="223.65" y="15.20" angle="90.00" type="HDV" speed="27.86" pos="75.17" lane="acc_1" slope="0.00"/>
    </timestep>
    <timestep time="6.10">
        <vehicle id="main_inner_39.0" x="155.94" y="18.40" angle="90.00" type="HDV" speed="34.19" pos="24.06" lane="acc_2" slope="0.00"/>